#     Step Nr.          Time[fs]        Kin.[a.u.]          Temp[K]            Pot.[a.u.]        Cons Qty[a.u.]        UsedTime[s]
         0            0.000000         0.275037913       300.000000000     -1102.989537610     -1102.714499698         0.000000000
         1            0.500000         0.281671178       307.235291962     -1102.995097067     -1102.714616769       114.086273130
         2            1.000000         0.278226155       303.477603516     -1103.006486713     -1102.714886874        25.314504210
         3            1.500000         0.285644639       311.569379790     -1103.020150532     -1102.715189212        23.532132130
         4            2.000000         0.285790333       311.728296822     -1103.028579634     -1102.715315912        23.544472553
         5            2.500000         0.303590779       331.144287486     -1103.035881387     -1102.715390060        26.136813577
         6            3.000000         0.323416559       352.769430617     -1103.037776416     -1102.715348799        33.292016365
         7            3.500000         0.312448187       340.805582974     -1103.033831062     -1102.715186668        28.885930929
         8            4.000000         0.301235441       328.575182708     -1103.028243521     -1102.715001383        27.945695527
         9            4.500000         0.304328756       331.949242531     -1103.023323951     -1102.714872674        26.132240083
        10            5.000000         0.296632863       323.554879872     -1103.020048418     -1102.714806433        24.084587488
        11            5.500000         0.309399931       337.480671238     -1103.021073423     -1102.714857462        20.075795781
        12            6.000000         0.306405087       334.214019118     -1103.021997851     -1102.714926881        16.663822565
        13            6.500000         0.295161808       321.950314058     -1103.024249842     -1102.714988515        18.268660825
        14            7.000000         0.288424377       314.601402425     -1103.027646551     -1102.715052021        30.649741996
        15            7.500000         0.308629441       336.640252191     -1103.028985958     -1102.715056226        73.775118064
        16            8.000000         0.312264866       340.605624189     -1103.033162892     -1102.715102272        39.148233514
        17            8.500000         0.295017717       321.793145509     -1103.034396589     -1102.715084747        30.597742189
        18            9.000000         0.284329090       310.134433196     -1103.035411496     -1102.715051455       252.180167019
        19            9.500000         0.287002021       313.049955778     -1103.035248443     -1102.714972749        65.202237058
        20           10.000000         0.288479130       314.661125376     -1103.037397724     -1102.714923241        29.449341912
        21           10.500000         0.299404740       326.578329106     -1103.041938164     -1102.714887919        33.261053879
        22           11.000000         0.301141500       328.472715725     -1103.048900397     -1102.714924868        20.941540744
        23           11.500000         0.302340619       329.780665439     -1103.058017006     -1102.715018307        17.471936498
        24           12.000000         0.303519437       331.066471221     -1103.066835228     -1102.715039607        15.751199882
        25           12.500000         0.296081546       322.953526949     -1103.074258090     -1102.715026532        12.285239119
        26           13.000000         0.299825489       327.037265133     -1103.080784621     -1102.714993210        11.430847108
        27           13.500000         0.321647006       350.839274370     -1103.088664392     -1102.714973522        10.529544558
        28           14.000000         0.308482383       336.479847048     -1103.098221180     -1102.714979208        10.588949673
        29           14.500000         0.309156915       337.215598854     -1103.109290960     -1102.715078497         9.647957716
        30           15.000000         0.325592530       355.142889453     -1103.117962392     -1102.715221917        11.297521368
        31           15.500000         0.340807755       371.739029007     -1103.124265151     -1102.715414593         8.788881071
        32           16.000000         0.339167110       369.949480575     -1103.125101244     -1102.715619903         8.818126287
        33           16.500000         0.313987785       342.484912799     -1103.119878900     -1102.715650620         8.815893751
        34           17.000000         0.308375132       336.362862631     -1103.110183846     -1102.715334226         8.845215660
        35           17.500000         0.302486737       329.940044379     -1103.099756078     -1102.714712035         8.800030958
        36           18.000000         0.310502791       338.683625045     -1103.098260268     -1102.714486102         8.867785275
        37           18.500000         0.335359362       365.796146632     -1103.104044889     -1102.714901191         8.829314388
        38           19.000000         0.328172246       357.956737451     -1103.112190108     -1102.715429542         8.823864702
        39           19.500000         0.327123593       356.812909497     -1103.119695014     -1102.715559000         8.838394366
        40           20.000000         0.319780628       348.803506798     -1103.126663919     -1102.715569807        11.251047924
        41           20.500000         0.335629408       366.090701628     -1103.132337595     -1102.715595511         8.820899710
        42           21.000000         0.343046209       374.180642436     -1103.135525847     -1102.715640655         8.812827941
        43           21.500000         0.324778846       354.255356752     -1103.135975547     -1102.715626945         8.861689176
        44           22.000000         0.321225171       350.379154327     -1103.137094662     -1102.715650635         8.781786587
        45           22.500000         0.312988519       341.394954195     -1103.136649762     -1102.715657712         8.795387339
        46           23.000000         0.301424623       328.781534241     -1103.136810021     -1102.715686149         8.845424153
        47           23.500000         0.299541174       326.727145880     -1103.139528665     -1102.715738241         8.820372373
        48           24.000000         0.309342707       337.418253144     -1103.142009628     -1102.715789296         9.659888998
        49           24.500000         0.308555183       336.559254739     -1103.144896238     -1102.715834145         8.835337047
        50           25.000000         0.307539383       335.451262386     -1103.146125471     -1102.715832665        10.920187712
        51           25.500000         0.293386862       320.014276541     -1103.145724758     -1102.715722587         8.788795296
        52           26.000000         0.294284998       320.993925846     -1103.149482194     -1102.715703613         8.849363234
        53           26.500000         0.310459605       338.636519861     -1103.153986234     -1102.715730828         8.825412631
        54           27.000000         0.315143393       343.745402062     -1103.160254220     -1102.715816451         8.819366258
        55           27.500000         0.302020544       329.431540805     -1103.164875648     -1102.715861982         8.823678371
        56           28.000000         0.294784382       321.538633236     -1103.171105447     -1102.716005763         8.828492723
        57           28.500000         0.302428141       329.876130404     -1103.174362874     -1102.716141843         8.800839815
        58           29.000000         0.295672247       322.507080577     -1103.169638267     -1102.716061708         8.839934215
        59           29.500000         0.298564441       325.661765444     -1103.164696729     -1102.715900103         8.806230865
        60           30.000000         0.292995187       319.587053898     -1103.161028605     -1102.715743498        11.490793046
        61           30.500000         0.295648650       322.481341105     -1103.162350298     -1102.715771335         8.857496351
        62           31.000000         0.307043427       334.910294280     -1103.165449013     -1102.715894545         8.801307783
        63           31.500000         0.317953158       346.810177950     -1103.167911555     -1102.716001782         8.853920825
        64           32.000000         0.327567138       357.296710031     -1103.170045613     -1102.716048404         8.839041803
        65           32.500000         0.329760904       359.689579861     -1103.167933833     -1102.715999688         8.802719045
        66           33.000000         0.325385868       354.917471678     -1103.161076711     -1102.715802271         8.823325969
        67           33.500000         0.324734895       354.207417188     -1103.155896162     -1102.715648249         8.805150919
        68           34.000000         0.326170000       355.772769541     -1103.153607284     -1102.715618223         8.813048258
        69           34.500000         0.341112346       372.071264524     -1103.154270348     -1102.715648000         8.826463044
        70           35.000000         0.344250782       375.494540390     -1103.157137361     -1102.715686242        11.669271789
        71           35.500000         0.340530815       371.436954353     -1103.159703900     -1102.715701960         8.836739436
        72           36.000000         0.344569161       375.841815005     -1103.163295290     -1102.715751806         8.809031699
        73           36.500000         0.348063734       379.653551251     -1103.165736449     -1102.715771731         8.878240731
        74           37.000000         0.317798383       346.641356227     -1103.167235258     -1102.715798459         8.841471106
        75           37.500000         0.332817895       363.024019397     -1103.170740117     -1102.715924052         8.811041422
        76           38.000000         0.316325150       345.034414297     -1103.171505845     -1102.715950761         8.799058657
        77           38.500000         0.307634715       335.555246536     -1103.170374735     -1102.715903462         8.872913558
        78           39.000000         0.309193688       337.255710258     -1103.168172286     -1102.715814843         8.807778943
        79           39.500000         0.308594783       336.602449032     -1103.166129268     -1102.715717710         8.784730311
        80           40.000000         0.296392714       323.292936022     -1103.162870320     -1102.715594453        11.738989979
        81           40.500000         0.309975454       338.108427366     -1103.162340290     -1102.715571651         8.803572938
        82           41.000000         0.295471479       322.288090262     -1103.162405126     -1102.715577376         8.817142125
        83           41.500000         0.310332149       338.497495939     -1103.165693141     -1102.715689652         8.881531458
        84           42.000000         0.320570035       349.664558989     -1103.169716829     -1102.715864153         8.819641188
        85           42.500000         0.322165339       351.404650605     -1103.170209424     -1102.715949551         8.820099685
        86           43.000000         0.305836404       333.593722921     -1103.169744625     -1102.715958774         8.886073496
        87           43.500000         0.303727094       331.292975045     -1103.169910218     -1102.715984423         8.829842672
        88           44.000000         0.320182883       349.242269955     -1103.169251229     -1102.715947182         8.795455649
        89           44.500000         0.311062215       339.293822098     -1103.166087326     -1102.715881791         8.829819534
        90           45.000000         0.308799430       336.825668962     -1103.162678608     -1102.715845678        11.929952841
        91           45.500000         0.308076076       336.036664474     -1103.160280437     -1102.715826660         8.830927089
        92           46.000000         0.306349360       334.153233863     -1103.156969072     -1102.715784430         8.837895636
        93           46.500000         0.291263632       317.698344630     -1103.152706487     -1102.715708076         8.824932978
        94           47.000000         0.277051156       302.195962381     -1103.150180400     -1102.715661909         8.781778961
        95           47.500000         0.284877393       310.732498514     -1103.152063360     -1102.715693969         8.798091810
        96           48.000000         0.285092558       310.967192092     -1103.152410756     -1102.715658886         8.860660557
        97           48.500000         0.293664499       320.317111331     -1103.152720207     -1102.715584033         8.789551724
        98           49.000000         0.299983285       327.209382195     -1103.153860256     -1102.715550062         8.799114216
        99           49.500000         0.307931709       335.879194754     -1103.157202031     -1102.715614336         8.836752165
       100           50.000000         0.275156189       300.129011234     -1103.159960523     -1102.715673825        12.055701461
       101           50.500000         0.284293269       310.095360514     -1103.164388242     -1102.715706865         8.789653044
       102           51.000000         0.302978685       330.476641540     -1103.169154648     -1102.715750939         8.782452427
       103           51.500000         0.301558719       328.927800484     -1103.168979248     -1102.715672727         8.802851517
       104           52.000000         0.291802797       318.286443412     -1103.169165272     -1102.715622275         8.835300844
       105           52.500000         0.275566010       300.576027162     -1103.168277245     -1102.715561255         7.960615125
       106           53.000000         0.279239696       304.583131702     -1103.172899568     -1102.715664447         8.853003755
       107           53.500000         0.288337332       314.506457496     -1103.179501158     -1102.715806990         7.937180310
       108           54.000000         0.288678819       314.878937921     -1103.186291135     -1102.715968618         7.941260960
       109           54.500000         0.299906474       327.125599608     -1103.193604693     -1102.716078688         8.837336753
       110           55.000000         0.298616041       325.718049011     -1103.194759250     -1102.716064967        11.440579850
       111           55.500000         0.296115431       322.990486968     -1103.192306202     -1102.715982365         8.807656679
       112           56.000000         0.301972698       329.379351446     -1103.187521889     -1102.715885162         8.879114456
       113           56.500000         0.290800948       317.193668404     -1103.182083954     -1102.715789171         8.837057281
       114           57.000000         0.289122124       315.362476076     -1103.176851929     -1102.715661528         8.929669835
       115           57.500000         0.297276079       324.256473362     -1103.174700628     -1102.715578819         8.862277724
       116           58.000000         0.295496026       322.314865500     -1103.173866146     -1102.715547626         8.870287724
       117           58.500000         0.282980555       308.663506087     -1103.177173896     -1102.715665409         8.898512565
       118           59.000000         0.300738320       328.032943271     -1103.182301117     -1102.715826043         8.821650896
       119           59.500000         0.311769576       340.065382349     -1103.184717176     -1102.715932049         8.913219143
       120           60.000000         0.306763439       334.604894397     -1103.185811782     -1102.715934713        11.416502059
       121           60.500000         0.296525313       323.437569550     -1103.186010535     -1102.715909454         8.903983407
       122           61.000000         0.300374163       327.635735740     -1103.185819174     -1102.715877717         8.937838323
       123           61.500000         0.295606019       322.434841365     -1103.187053199     -1102.715881948         8.839012187
       124           62.000000         0.302393537       329.838385694     -1103.186736537     -1102.715866982         8.911713194
       125           62.500000         0.303222251       330.742312275     -1103.186889475     -1102.715862085         8.088473585
       126           63.000000         0.308159057       336.127176934     -1103.186260185     -1102.715777371         7.999399453
       127           63.500000         0.319424536       348.415095964     -1103.188715902     -1102.715776800         7.995438859
       128           64.000000         0.317447824       346.258980145     -1103.187236187     -1102.715706241         8.052944936
       129           64.500000         0.322099514       351.332851647     -1103.187059613     -1102.715684443         8.857949555
       130           65.000000         0.328305657       358.102256821     -1103.187410892     -1102.715719499        12.320513524
       131           65.500000         0.307554243       335.467471062     -1103.188157227     -1102.715776110         8.886392962
       132           66.000000         0.304554292       332.195247835     -1103.188184786     -1102.715823717         8.906417888
       133           66.500000         0.305495719       333.222117340     -1103.184429250     -1102.715798921         7.992988735
       134           67.000000         0.294977612       321.749401440     -1103.180427422     -1102.715741351         8.045109637
       135           67.500000         0.298699325       325.808892241     -1103.177150824     -1102.715654008         7.980720952
       136           68.000000         0.293125779       319.729497543     -1103.173909476     -1102.715517822         8.857288126
       137           68.500000         0.303215035       330.734441491     -1103.173707147     -1102.715468803         8.938124973
       138           69.000000         0.286917948       312.958252168     -1103.176231989     -1102.715555621         8.866383299
       139           69.500000         0.275960804       301.006651987     -1103.180532030     -1102.715687670         8.943498120
       140           70.000000         0.296340312       323.235778122     -1103.186872638     -1102.715877327        11.186349388
       141           70.500000         0.287278875       313.351936819     -1103.188326665     -1102.715955765         8.017754301
       142           71.000000         0.300868965       328.175445331     -1103.187314981     -1102.715993152         8.895331573
       143           71.500000         0.275664241       300.683173370     -1103.182339978     -1102.715894546         8.031513315
       144           72.000000         0.283755940       309.509264707     -1103.177352435     -1102.715711035         7.998717070
       145           72.500000         0.280675043       306.148749466     -1103.172597800     -1102.715518442         8.041646447
       146           73.000000         0.270145401       294.663450362     -1103.170410196     -1102.715490656         8.033101477
       147           73.500000         0.280307669       305.748032611     -1103.170759128     -1102.715613918         7.980019882
       148           74.000000         0.281341975       306.876210988     -1103.172056293     -1102.715705045         8.058576096
       149           74.500000         0.295485338       322.303207594     -1103.171707057     -1102.715698054         7.983141981
       150           75.000000         0.290099342       316.428385866     -1103.173606710     -1102.715711502        11.948258463
       151           75.500000         0.297099241       324.063586232     -1103.176726455     -1102.715738042         8.877448812
       152           76.000000         0.287857355       313.982919028     -1103.178075179     -1102.715706060         8.914523572
       153           76.500000         0.280434548       305.886427512     -1103.177229551     -1102.715619573         8.003758371
       154           77.000000         0.277337319       302.508097803     -1103.176911418     -1102.715569050         8.040848337
       155           77.500000         0.274303475       299.198905529     -1103.180093895     -1102.715595512         8.001551609
       156           78.000000         0.279749179       305.138855359     -1103.185419702     -1102.715688226         7.976081565
       157           78.500000         0.277272788       302.437709438     -1103.193660669     -1102.715851064         8.940147799
       158           79.000000         0.302181184       329.606760142     -1103.200205960     -1102.715973570         8.000693232
       159           79.500000         0.307134541       335.009677159     -1103.201806115     -1102.715967039         8.056384146
       160           80.000000         0.298316888       325.391745184     -1103.197200914     -1102.715837323        11.133053727
       161           80.500000         0.276366968       301.449678982     -1103.191641145     -1102.715670380         8.053349361
       162           81.000000         0.265604479       289.710400413     -1103.186685392     -1102.715511311         8.850928277
       163           81.500000         0.286831112       312.863535388     -1103.183974337     -1102.715418028         8.031295449
       164           82.000000         0.292013694       318.516481486     -1103.185312142     -1102.715443879         7.977920968
       165           82.500000         0.304579754       332.223021485     -1103.188824474     -1102.715575720         8.929898318
       166           83.000000         0.305745495       333.494562769     -1103.194394502     -1102.715735865         8.033400465
       167           83.500000         0.302628282       330.094435863     -1103.198374768     -1102.715797114         8.857641216
       168           84.000000         0.311575821       339.854041869     -1103.201378933     -1102.715842770         8.867067184
       169           84.500000         0.293799708       320.464591686     -1103.198619738     -1102.715798860         7.996655561
       170           85.000000         0.302622796       330.088451828     -1103.193559385     -1102.715731990        12.457195859
       171           85.500000         0.265106422       289.167140641     -1103.184946296     -1102.715560900         8.910189737
       172           86.000000         0.263294770       287.191064372     -1103.180577429     -1102.715445064         8.829755962
       173           86.500000         0.263813594       287.756976348     -1103.180712226     -1102.715442240         8.905466855
       174           87.000000         0.256843664       280.154464976     -1103.182270505     -1102.715493136         8.827002857
       175           87.500000         0.253525700       276.535366364     -1103.186886254     -1102.715636016         8.047336996
       176           88.000000         0.262447446       286.266838820     -1103.193145708     -1102.715789831         8.806198712
       177           88.500000         0.271858283       296.531791151     -1103.197684450     -1102.715895362         8.015050415
       178           89.000000         0.272327412       297.043497943     -1103.198228407     -1102.715882341         7.972245090
       179           89.500000         0.284943137       310.804209880     -1103.197572961     -1102.715833974         8.857985724
       180           90.000000         0.287682652       313.792359389     -1103.195312185     -1102.715741357        11.929192010
       181           90.500000         0.282146337       307.753576378     -1103.191374547     -1102.715682873         8.882966273
       182           91.000000         0.269019004       293.434823265     -1103.192519151     -1102.715741908         8.797540613
       183           91.500000         0.278182714       303.430219865     -1103.191147034     -1102.715695948         7.978438471
       184           92.000000         0.276342560       301.423055043     -1103.191628166     -1102.715701246         7.978236236
       185           92.500000         0.270903243       295.490072876     -1103.192394195     -1102.715755574         8.837093290
       186           93.000000         0.282318575       307.941445869     -1103.191225790     -1102.715758498         8.875896879
       187           93.500000         0.283396180       309.116852547     -1103.190754577     -1102.715777818         8.804432563
       188           94.000000         0.289091852       315.329457165     -1103.189258821     -1102.715728989         8.878542945
       189           94.500000         0.273526898       298.351847203     -1103.186853364     -1102.715674302         8.815222811
       190           95.000000         0.266193436       290.352810617     -1103.182934384     -1102.715595603        12.219976295
       191           95.500000         0.262566441       286.396633485     -1103.180208140     -1102.715540431         7.941274073
       192           96.000000         0.251918277       274.782056518     -1103.181874436     -1102.715602422         7.991875321
       193           96.500000         0.276927864       302.061481299     -1103.181464049     -1102.715587646         7.981528360
       194           97.000000         0.264616715       288.632987846     -1103.181342527     -1102.715549983         8.861118965
       195           97.500000         0.272882198       297.648635620     -1103.182941228     -1102.715533714         8.808451608
       196           98.000000         0.271487967       296.127866163     -1103.185067652     -1102.715585826         8.847292595
       197           98.500000         0.272909624       297.678550524     -1103.187107846     -1102.715655824         8.822239358
       198           99.000000         0.265570907       289.673780636     -1103.188457072     -1102.715670440         7.951780044
       199           99.500000         0.266478400       290.663637576     -1103.187655169     -1102.715583852         8.819733121
       200          100.000000         0.270929986       295.519243450     -1103.185065540     -1102.715482965        11.648669545
       201          100.500000         0.263948820       287.904475755     -1103.180646501     -1102.715374859         8.858317219
       202          101.000000         0.262410337       286.226362216     -1103.179071027     -1102.715363258         8.828980077
       203          101.500000         0.278042773       303.277577794     -1103.176119098     -1102.715293673         8.847195759
       204          102.000000         0.281735165       307.305086925     -1103.176203954     -1102.715249884         7.934577029
       205          102.500000         0.289643770       315.931465812     -1103.177431394     -1102.715214061         8.858958602
       206          103.000000         0.288116078       314.265122542     -1103.181478710     -1102.715288855         8.806599453
       207          103.500000         0.282244469       307.860614406     -1103.189861616     -1102.715469974         8.013728626
       208          104.000000         0.283542716       309.276688959     -1103.196335036     -1102.715641042         7.943852469
       209          104.500000         0.296265700       323.154394392     -1103.200159685     -1102.715734022         7.965620041
       210          105.000000         0.291839269       318.326225585     -1103.200382058     -1102.715737431        10.719494220
       211          105.500000         0.281742741       307.313350174     -1103.196625394     -1102.715583942         7.953894440
       212          106.000000         0.271615840       296.267344338     -1103.190681699     -1102.715334069         7.991791643
       213          106.500000         0.277052184       302.197084030     -1103.189011329     -1102.715216046         7.938706949
       214          107.000000         0.301333605       328.682255734     -1103.191906251     -1102.715252388         8.027182136
       215          107.500000         0.297605920       324.616250638     -1103.198950478     -1102.715418135         7.928869739
       216          108.000000         0.308741593       336.762582952     -1103.208524200     -1102.715655123         7.957537256
       217          108.500000         0.327743402       357.488972316     -1103.217585004     -1102.715851570         8.014612816
       218          109.000000         0.310425696       338.599533327     -1103.221622134     -1102.715918579         7.943039399
       219          109.500000         0.301252841       328.594162012     -1103.221696937     -1102.715900485         8.026078220
       220          110.000000         0.311006921       339.233509881     -1103.219424821     -1102.715797732        11.218628865
       221          110.500000         0.300462223       327.731787763     -1103.217984656     -1102.715689689         7.991820913
       222          111.000000         0.292731071       319.298967077     -1103.217914094     -1102.715612745         7.959607970
       223          111.500000         0.291031213       317.444831777     -1103.218938095     -1102.715609911         7.957055584
       224          112.000000         0.277724865       302.930816682     -1103.218368732     -1102.715634222         7.967181318
       225          112.500000         0.269586693       294.054035059     -1103.220295295     -1102.715715297         7.907254364
       226          113.000000         0.268044503       292.371877672     -1103.219745743     -1102.715690682         7.999711487
       227          113.500000         0.270209067       294.732894202     -1103.221027793     -1102.715654406         7.944320727